# vtk DataFile Version 3.0
Mesquite Mesh
ASCII
DATASET UNSTRUCTURED_GRID
POINTS 45 double
2 -1 1
2 1 1
2 0 1
-2 1 1
1 1 1
0 1 1
-1 1 1
-2 -1 1
-2 0 1
-1 -1 1
0 -1 1
1 -1 1
1 0 1
0 0 1
-1 0 1
2 1 -1
2 -1 -1
2 0 -1
-2 -1 -1
1 -1 -1
0 -1 -1
-1 -1 -1
-2 1 -1
-2 0 -1
-1 1 -1
0 1 -1
1 1 -1
1 0 -1
0 0 -1
-1 0 -1
-2 -1 0
2 -1 0
-1 -1 0
0 -1 0
1 -1 0
-2 1 0
-2 0 0
2 1 0
1 1 0
0 1 0
-1 1 0
2 0 0
-0.9633398765 7.101077784e-19 0
0.08718511768 0 0
0.9911750427 0 0
CELLS 16 144
8 7 30 36 8 9 32 42 14
8 30 18 23 36 32 21 29 42
8 8 36 35 3 14 42 40 6
8 36 23 22 35 42 29 24 40
8 9 32 42 14 10 33 43 13
8 32 21 29 42 33 20 28 43
8 14 42 40 6 13 43 39 5
8 42 29 24 40 43 28 25 39
8 10 33 43 13 11 34 44 12
8 33 20 28 43 34 19 27 44
8 13 43 39 5 12 44 38 4
8 43 28 25 39 44 27 26 38
8 11 34 44 12 0 31 41 2
8 34 19 27 44 31 16 17 41
8 12 44 38 4 2 41 37 1
8 44 27 26 38 41 17 15 37
CELL_TYPES 16
12
12
12
12
12
12
12
12
12
12
12
12
12
12
12
12
POINT_DATA 45
SCALARS fixed int
LOOKUP_TABLE default
1
1
1
1
1
1
1
1
1
1
1
1
1
1
1
1
1
1
1
1
1
1
1
1
1
1
1
1
1
1
1
1
1
1
1
1
1
1
1
1
1
1
0
0
0
